     594
 i =        0, time =        0.000, E =     -4633.9039248646
  H         1.9876200000       13.7766000000       11.8011000000
  H         0.6049170000        7.3790900000        7.1279800000
  H        12.5087000000       16.7641000000        0.9665630000
  H         9.2467400000       10.0063000000        4.3803000000
  H        13.5454000000        1.0424300000        8.6283300000
  H         8.6181900000       16.6821000000        8.9599100000
  H         7.3213700000       10.5831000000        4.3830700000
  H         2.0330900000        7.1538800000        8.1063300000
  H        12.5315000000       11.9770000000       11.1027000000
  H        14.7294000000        0.9382450000       14.0578000000
  H         6.3576800000        0.5932340000        8.2434900000
  H         8.7658000000        5.5662000000        2.7909300000
  H         0.5161440000        1.6948300000        8.0140500000
  H         1.8005600000       11.3253000000       11.8293000000
  H        12.1501000000       12.8091000000       16.7544000000
  H        14.0260000000        8.0346200000        5.3666400000
  H        11.5826000000        3.5844900000        6.1924500000
  H        16.6887000000       14.2329000000       16.0262000000
  H        15.4310000000       13.1917000000       10.5586000000
  H         7.3523100000       12.1598000000        7.9711200000
  H         0.8230310000       12.8147000000        3.6699400000
  H        14.9282000000       15.8763000000       13.2534000000
  H        12.7848000000       11.3118000000        2.7836600000
  H         0.9301460000        9.3475500000        7.6517200000
  H         9.7865700000       15.9700000000        7.4852200000
  H        16.6470000000        0.7801420000       11.7153000000
  H         6.2657500000       13.3488000000       16.5090000000
  H         2.3803100000        1.4755400000        7.4147500000
  H        13.3757000000        5.5633000000       10.4863000000
  H        14.5823000000        6.2285300000        5.9228600000
  H         3.0371400000       11.2355000000       15.3958000000
  H         4.3254000000       13.5861000000       14.8764000000
  H         1.6880500000       16.3464000000        8.3883200000
  H         1.3690700000       16.7024000000       12.9392000000
  H         4.5675500000        5.4163800000       13.0539000000
  H        11.4805000000        1.1364700000       11.8488000000
  H        14.1354000000        7.5339000000        1.0963700000
  H        14.1500000000        7.6044400000       16.4338000000
  H         7.1400900000        8.7702100000        8.0722700000
  H         7.9877900000        9.5255200000        9.2366100000
  H         3.4558400000       12.8304000000        2.7644800000
  H         0.1912410000       14.7397000000        6.5614600000
  H        11.2941000000       16.3419000000       15.8551000000
  H         9.9258500000       10.8087000000        5.5272100000
  H        14.6045000000       10.1786000000        1.9093900000
  H        15.9976000000       10.6003000000        2.5078800000
  H         1.4467500000        8.4222200000        2.4273800000
  H         0.5263580000        9.5671700000        2.9866000000
  H        16.1165000000        2.7261500000       14.9143000000
  H        15.2388000000        4.6061700000       14.0029000000
  H        16.5519000000        0.1647760000       15.7397000000
  H        16.6578000000       16.1189000000       14.5397000000
  H         1.5232000000       12.7504000000        5.4596900000
  H         2.3547500000       11.7394000000        4.6588800000
  H         7.2891800000       14.9160000000        8.4507600000
  H         7.7028400000       14.3641000000        6.9836600000
  H        14.6568000000        1.3219700000        1.1670100000
  H        15.6475000000        0.1975790000        0.9033150000
  H         3.4685100000       15.5170000000        2.8718500000
  H         4.8829400000       15.4907000000        2.2099900000
  H        12.4091000000        9.7863300000        0.8790760000
  H        11.8536000000       10.7147000000       16.5619000000
  H        15.2196000000        4.9114400000       16.5869000000
  H        16.0310000000        2.2389900000       11.3263000000
  H         1.0475200000        5.8436600000       11.1289000000
  H         2.4429100000        6.1848700000       11.7697000000
  H        11.4488000000        0.4016820000        4.5497000000
  H        12.3346000000       16.0780000000        4.2096700000
  H        10.1910000000        9.0301000000       11.3109000000
  H        11.1182000000        8.2623400000       10.3944000000
  H         5.4360400000        3.3914600000        7.8397700000
  H         4.4208900000        3.1911800000        6.7752000000
  H         8.6611900000       12.3348000000        5.4456800000
  H         9.9215100000       13.1706000000        5.6207200000
  H        15.6664000000       11.1890000000        7.5709600000
  H        14.7419000000       10.8610000000        6.4568900000
  H        11.0074000000       12.5295000000        7.7804600000
  H        13.9313000000       13.7649000000       14.2739000000
  H         5.0757700000        5.4090600000        5.2679900000
  H         4.5513400000        0.9434920000        3.0470100000
  H         8.0916500000        6.0310000000       12.8973000000
  H         8.8597400000        6.5920500000       11.5949000000
  H        16.2293000000        6.2290000000       16.6153000000
  H        16.5493000000        7.4356000000        1.3285700000
  H        14.2545000000        3.0969700000        0.2670110000
  H        13.4387000000        4.0876600000       16.3795000000
  H        10.3691000000        9.7028300000        2.0435700000
  H         9.0332400000       10.2635000000        1.9338600000
  H         7.3083000000       12.4383000000        2.3048500000
  H         5.9744300000       13.1819000000        1.7582300000
  H        14.3882000000        8.5017300000       12.9529000000
  H        13.0969000000        8.4007100000       13.9300000000
  H        14.8696000000        6.0642600000        3.3467600000
  H        14.5664000000        5.3909700000        2.0682600000
  H        12.9424000000        9.8105900000        3.5467900000
  H        16.1955000000       13.1349000000        3.6966700000
  H         8.2459500000        2.8095200000        9.2405800000
  H         6.6486800000        2.5131600000        9.2419200000
  H         4.7716400000        0.2484030000        0.6017440000
  H         4.8981900000       16.8269000000       16.0023000000
  H        11.7404000000       10.7801000000        5.9050300000
  H        11.5484000000       12.0083000000        5.1162400000
  H         6.0535800000       14.3987000000        3.9365400000
  H        11.9357000000       14.2765000000        0.9372870000
  H        16.5480000000        6.6854500000       13.5698000000
  H         1.5900500000        6.0109400000        3.4421300000
  H         9.6758000000       13.8518000000       13.9251000000
  H        10.6618000000       13.0023000000       14.8016000000
  H        14.1809000000       14.7692000000        3.2213100000
  H        15.0454000000       15.9766000000        2.7428300000
  H         5.3295900000        0.9047240000        9.4446900000
  H         7.8395100000       16.1704000000       10.0752000000
  H        11.8273000000       10.9516000000       13.7900000000
  H        12.3150000000       10.0313000000       12.6899000000
  H         7.9613900000        4.0119900000        6.1914900000
  H         7.3899000000        5.0884400000        7.0289700000
  H         8.8529200000       11.9821000000        7.2517300000
  H         6.1811300000       11.9535000000        9.4133200000
  H         5.9411600000       16.6515000000        5.5729200000
  H         4.4432400000       16.3449000000        6.2031900000
  H         9.2578000000       14.8831000000        0.8338880000
  H         9.2094000000       15.5872000000       16.3578000000
  H         4.6812000000        2.0928200000       13.7532000000
  H         5.8583200000        3.0315700000       12.1560000000
  H         7.8695700000       15.2571000000        2.2960200000
  H         6.7504400000       16.0089000000        1.3335800000
  H         1.0136300000        4.5303400000        4.8717400000
  H         2.5322800000        4.2953400000        4.8687700000
  H         3.6546100000        8.9710500000        6.1581000000
  H         3.5281100000        7.3606500000        7.6114200000
  H         0.2073400000       10.7315000000       13.4705000000
  H         3.5071300000       11.6645000000       14.0012000000
  H         9.6408800000       10.2501000000       13.7017000000
  H         7.2843100000       14.1804000000        4.7325800000
  H         9.0986600000        0.3468470000        5.9470900000
  H         9.9117700000       15.9539000000        5.4988900000
  H         6.4321400000        6.1309500000        1.1434500000
  H         6.1944800000        4.8571500000        0.1333580000
  H        10.4974000000       11.7704000000       11.8597000000
  H         9.0264300000       11.6315000000       12.1237000000
  H         1.2237000000        8.7860400000       15.1424000000
  H         5.5261900000        8.4683600000       13.1794000000
  H        12.0914000000        3.0163100000        1.9777000000
  H        10.9619000000        2.0360400000        2.0669600000
  H         2.7525400000        2.3140200000        3.5508500000
  H         1.3823100000        1.8642600000        2.9657800000
  H        14.2541000000       16.6205000000       16.7210000000
  H        13.8034000000       15.1357000000       16.6105000000
  H         4.8494200000        4.9341500000       15.3520000000
  H         7.2330400000        6.6688800000        9.2218700000
  H         2.4083200000        2.7347900000        6.5298100000
  H         5.4274800000       11.6705000000        6.5574800000
  H         0.3019140000       15.0163000000       10.7144000000
  H         0.7417800000       16.4962000000       10.8601000000
  H         2.0173200000        8.4486900000       10.0201000000
  H         4.5343100000        9.8868400000        5.3941500000
  H         1.9983300000       15.3495000000       11.6303000000
  H         0.2264660000       13.0433000000       13.4017000000
  H         4.4018000000       10.1973000000       12.7206000000
  H         3.9076600000       11.2606000000       11.7285000000
  H         2.7713700000        3.3811500000       10.0087000000
  H         1.2324300000        3.1412300000       10.8362000000
  H        13.7308000000        2.6467900000        6.5189100000
  H        14.9503000000        3.2057800000        5.7294700000
  H         3.4511300000        4.1064300000        8.3747800000
  H         2.1050200000        4.7368500000        8.6811700000
  H         7.7483500000        0.8895420000       12.7347000000
  H         8.5694700000       16.5135000000       12.2678000000
  H        12.5865000000        2.6206300000        4.5729900000
  H        11.2446000000        2.7845500000        3.8949300000
  H        10.9937000000        2.3481600000        8.7087700000
  H        10.1351000000        1.9156500000        9.8474500000
  H         5.2241800000        2.4230300000        0.6058910000
  H         4.6682500000        3.7808500000        0.9584980000
  H        14.5464000000       13.2506000000        0.6874260000
  H        13.4857000000       12.7253000000        1.5881300000
  H        15.9547000000        3.8908900000       10.1107000000
  H        16.2008000000        4.3642200000       11.5953000000
  H         5.1902200000       11.0774000000       15.3251000000
  H         6.0692500000       10.5953000000       14.1586000000
  H        14.3749000000        3.5774700000        8.7195400000
  H        15.8147000000        3.0420500000        8.3757000000
  H        11.7679000000        6.8971100000        2.9209900000
  H        12.4301000000        8.3138100000        2.3910100000
  H        10.3616000000       15.9682000000       13.5996000000
  H        10.9770000000       15.2649000000       12.4392000000
  H        14.4331000000        2.1485800000        3.5894000000
  H        14.1881000000        3.1306800000        2.4432400000
  H         0.0263460000       10.7083000000        4.8210600000
  H        16.2878000000        9.2980200000        4.9177700000
  H         2.2180400000        0.2669210000        1.9018300000
  H         1.0024300000       16.3205000000        1.6016000000
  H         3.6213500000        8.6065200000        3.6655800000
  H         5.0205700000        8.1939300000        2.7863900000
  H         6.8964100000        1.4434300000       14.9236000000
  H         5.5313800000        1.8633700000       15.5444000000
  H         9.1743400000        7.1957900000        4.5329500000
  H         9.0717100000        7.8390600000        3.0674300000
  H         5.9533100000        9.0032300000        6.6666700000
  H         7.4533100000        8.9830900000        6.2417700000
  H        15.7145000000        8.0936500000       10.3358000000
  H        15.3632000000        6.7756200000       11.3787000000
  H         1.2442000000        8.3438800000        6.0524800000
  H         0.1572050000        5.8386000000        2.8354000000
  H         9.8357300000        2.2538800000        5.5273900000
  H         9.3355700000        2.3170900000        6.8968000000
  H         8.8834800000       14.2589000000        9.8993200000
  H         9.6737300000       13.7382000000       11.2208000000
  H         1.9296500000       15.9996000000        6.9491000000
  H        12.0660000000       15.6978000000       10.9502000000
  H        13.1777000000        9.9019000000        9.4953500000
  H        16.1034000000       10.8540000000       10.2339000000
  H        11.3099000000        9.0017100000        6.2039600000
  H         9.6956000000        9.0882000000        6.1639500000
  H         8.2104600000        3.4995800000        2.4819900000
  H         7.9516100000        2.6548300000        3.8554400000
  H        15.4629000000       15.9808000000        7.0580700000
  H        13.2163000000        5.2824600000        7.2160300000
  H         7.7267100000       13.3280000000       12.5496000000
  H         7.2133100000       11.7926000000       12.3473000000
  H        10.3158000000        3.1587600000       16.1475000000
  H         9.7762000000        3.5271100000        0.6378560000
  H         2.7420700000        2.9803500000       14.7873000000
  H         3.5764500000        3.1346200000       16.1818000000
  H         7.4560600000        8.8139800000       14.8349000000
  H        10.6239000000        5.2643000000        0.8851310000
  H         3.7989300000        4.2112000000       12.3677000000
  H         0.6958670000        2.2348900000       14.6591000000
  H        13.1616000000        0.2462910000       10.5264000000
  H        14.2127000000        1.0445900000       11.3813000000
  H         4.2308200000       15.6189000000        8.5481200000
  H         4.7035600000       14.3842000000        9.4688000000
  H         0.4056650000       14.2995000000        5.0723600000
  H        13.5535000000       12.5251000000        4.0277200000
  H         9.6504600000       13.9455000000        2.1732200000
  H         8.9356000000       13.5615000000        3.5927800000
  H         1.9233300000       16.1542000000        5.1708300000
  H         2.2499600000        0.5442070000        4.3198700000
  H         7.1320700000        7.2139100000        2.7920700000
  H         6.1659600000        6.1320000000        3.0984500000
  H        16.5383000000        2.5781900000        0.7201220000
  H         1.1141300000        2.8990500000        1.3745400000
  H         1.2268500000       13.8870000000        8.1671200000
  H         2.5617600000       13.3150000000        7.7253700000
  H        14.5168000000       14.3153000000       10.1884000000
  H         2.9791900000       15.0786000000       14.7989000000
  H         0.7330940000       11.8577000000       15.8665000000
  H         1.4075100000       12.1014000000        0.3928360000
  H         7.7948300000        9.7892000000       12.5167000000
  H         7.4230300000        8.3455500000       11.8428000000
  H        12.4030000000        0.1822880000        2.4538100000
  H        12.7944000000        2.0398900000       14.7965000000
  H        13.3946000000       16.1252000000       14.6286000000
  H        13.1189000000       16.6475000000       13.1394000000
  H         8.8617000000        8.0310900000       16.4837000000
  H         9.2398400000        7.0479500000        0.8056050000
  H        15.7690000000        7.2152800000        5.7793500000
  H        14.5403000000       12.8989000000        5.2117800000
  H        15.0977000000        9.0504700000       15.7725000000
  H        16.2275000000        9.0719300000       14.6783000000
  H        16.3414000000       16.1589000000        8.2941100000
  H        14.3942000000       16.4855000000        4.6607200000
  H        11.9342000000        4.1154400000        8.7075500000
  H        11.1686000000        4.1020800000       10.1618000000
  H        10.7385000000        7.2818700000       14.5208000000
  H        11.2777000000        8.7951600000       14.5034000000
  H         5.3955600000       13.1955000000       11.5429000000
  H        10.4825000000        0.2403950000        8.4483700000
  H        16.5632000000        1.4173100000        9.2817800000
  H        14.3036000000       15.7204000000        9.0588400000
  H         6.2458600000        4.4649100000        4.7430600000
  H         1.1699800000       10.9109000000        7.2454100000
  H         7.2392000000        1.2799300000        5.0477300000
  H         9.4835700000        0.3456480000        3.8872300000
  H         4.4373700000        4.9989200000        3.1706500000
  H         3.5886900000        3.7736800000        2.7754500000
  H        11.1467000000        7.1014700000       11.9831000000
  H        13.1025000000        7.6008800000        8.0166100000
  H         3.7826300000        9.9405000000        0.3043870000
  H         3.1016800000       10.5984000000        1.5874000000
  H        11.8771000000        4.1026100000       14.4545000000
  H        12.3000000000        6.0082700000       15.0650000000
  H         4.4633300000       16.8560000000       14.0585000000
  H         7.6444000000       14.2610000000       16.3310000000
  H        10.7788000000        5.5784000000       12.0580000000
  H         9.6001000000        3.3337000000       11.2100000000
  H         1.4230000000       13.3724000000       14.2260000000
  H         4.3124900000       12.7048000000        0.4208720000
  H         6.2060800000        8.4508000000        1.2890400000
  H         1.1575400000       13.8128000000        1.6420400000
  H        12.5201000000        3.7292600000       11.2958000000
  H        12.3422000000        3.2492700000       12.8316000000
  H        15.7777000000        8.9412900000        8.5543600000
  H        14.3176000000        8.6925400000        8.8551000000
  H         3.6313400000        7.1316300000       16.2009000000
  H         3.9704000000        8.6587800000       15.7747000000
  H         2.7875000000        7.1034100000        5.2422900000
  H         1.7718300000        7.6716500000        4.2740300000
  H        11.5427000000       10.2799000000        8.8923600000
  H        10.2413000000        9.6654400000        8.0155900000
  H        11.4187000000       15.4764000000        1.8504400000
  H         9.4215400000        2.3399900000       14.3012000000
  H         4.7649700000        7.4254800000       10.2595000000
  H         4.0408900000        8.7725000000        9.7118300000
  H        13.8296000000       13.2873000000        7.8795200000
  H        14.7025000000        0.9297090000        5.6196000000
  H         4.6881700000        5.8614200000        7.1041900000
  H         5.3760100000        7.0668300000        6.4686600000
  H        11.7307000000        8.4482100000        8.0471000000
  H        11.1433000000        4.9909100000        6.7647700000
  H         3.6529100000        0.0027100000       10.1224000000
  H         7.3068200000        2.8551300000       12.6457000000
  H        12.2100000000       13.4731000000       11.3147000000
  H        13.3553000000       11.3488000000        9.0105100000
  H         9.9912400000        6.5836800000        6.6727300000
  H         9.2585300000        5.4085800000        5.9736600000
  H         5.9986000000        9.7964900000        0.4335760000
  H        15.5819000000       13.5573000000       15.3158000000
  H         8.8093800000        6.8036500000        9.3231700000
  H        10.4224000000        1.7797100000       12.7423000000
  H        15.8221000000       14.7219000000       12.4902000000
  H         1.6294900000       15.6007000000       15.4321000000
  H         9.7345900000       11.6075000000       16.5161000000
  H         8.4473000000       12.2976000000        0.3701180000
  H        11.9448000000        5.6677900000        4.6112300000
  H        11.8036000000        4.6488100000        3.5388100000
  H         1.6657000000        6.7544900000       14.4944000000
  H         2.9144500000        5.5882800000       14.2862000000
  H         8.3014000000        2.5622600000       15.2333000000
  H        10.2900000000        0.5721730000       15.5550000000
  H         7.9510700000        1.8609000000        0.2183350000
  H         7.8763900000        0.2915160000        0.4083580000
  H         1.4653200000        5.8528300000        1.3055400000
  H         2.8964400000        5.0622800000        0.9229280000
  H         6.6730300000       16.1863000000       13.1662000000
  H         6.4347800000       14.8053000000       14.3382000000
  H        15.9520000000        0.5808980000        4.1173900000
  H         0.0010570000        0.3472010000        2.9693600000
  H         8.3378100000        4.2722100000       14.6045000000
  H         7.4555200000        5.5196200000       14.8145000000
  H        16.0381000000       14.8726000000        0.8560780000
  H        16.6668000000       14.7371000000        2.2147000000
  H        12.6203000000       12.3572000000       15.2619000000
  H        14.2953000000        1.0744500000       15.4174000000
  H        14.3019000000        9.8857000000       11.2245000000
  H        15.2801000000       10.3870000000       12.4008000000
  H         5.2518100000        4.9854200000        9.3967300000
  H         5.0528700000        5.4529600000       10.9515000000
  H        14.5352000000        5.5496600000        7.9158100000
  H        12.9598000000        2.1972800000        9.3923100000
  H        12.0700000000        5.0745400000        0.1211880000
  H         6.2466400000       11.7240000000        4.5807600000
  H         9.8388600000        4.4875800000        2.7758000000
  H         9.4260400000        0.4320590000        2.3123400000
  H         3.1514700000        9.9745700000        8.3610300000
  H         3.9901100000       11.3733000000        8.0496800000
  H        16.2463000000        3.9791000000        6.7392300000
  H        16.6970000000        2.5770500000        6.4186000000
  H         0.0773480000        4.9996100000        8.4324200000
  H         0.8972790000        4.8441300000        7.1571000000
  H        14.0495000000       12.8489000000       13.1856000000
  H         1.4252700000        7.8002800000       16.5129000000
  H        11.2637000000       13.1574000000        2.8373800000
  H        10.8375000000       11.7343000000        3.2216100000
  H        11.9185000000       15.1787000000        5.8666200000
  H        13.1658000000       15.6844000000        6.7358400000
  H         4.2124500000       12.8635000000        4.0596700000
  H         3.2094100000       14.6865000000        5.3703100000
  H         4.3835500000        1.7457500000        4.9620100000
  H         4.3055400000        3.1536100000        4.4293900000
  H         3.4093700000        8.1914200000       13.0777000000
  H         2.7860300000        9.5540900000       13.7718000000
  O         2.2663100000       14.5564000000       12.2397000000
  O         0.4435230000        8.1717700000        6.6029300000
  O        11.8819000000        0.1627760000        1.6508700000
  O         9.0644300000       10.3174000000        5.2065400000
  O        13.2659000000        1.9452400000        8.5188900000
  O         7.7364700000       16.3453000000        9.1817300000
  O         6.3092700000       10.8066000000        4.3509200000
  O         2.8240100000        7.7978300000        8.0645600000
  O        14.2722000000       12.8649000000       14.0934000000
  O        11.4347000000        3.2667700000       14.0733000000
  O         5.7433000000        1.2912900000        8.5843100000
  O         9.1724300000        4.8805500000        2.2375700000
  O        16.5409000000        1.4007600000        8.3299200000
  O         2.2238600000       11.8481000000       11.0912000000
  O        11.9283000000       12.2877000000       15.8913000000
  O        13.5827000000        8.9955800000        5.6687600000
  O        11.6881000000        4.1596700000        6.9532900000
  O        15.7830000000       14.0335000000       16.1420000000
  O        15.2386000000       14.0886000000       10.8460000000
  O         8.0955200000       11.5698000000        7.9304800000
  O         0.1847330000       13.5333000000        3.5417000000
  O        15.8579000000       15.5666000000       13.0551000000
  O        12.4156000000        9.2116000000        5.0173800000
  O         0.8287010000       10.3480000000        7.9950500000
  O        10.5498000000       16.1690000000        8.2420800000
  O        15.9959000000        1.2595300000       11.1366000000
  O         7.0329300000       13.4701000000       15.8857000000
  O         2.1853200000        2.4229300000        7.4184500000
  O        13.7218000000        6.1938900000       11.1090000000
  O        15.0440000000        6.8459900000        5.2811100000
  O        12.8596000000       10.7723000000        9.6621500000
  O         4.0332100000       13.4529000000       13.9283000000
  O         2.2777100000       16.5022000000        7.6271500000
  O         1.4450300000        0.6270050000       12.4613000000
  O         4.0228000000        5.1590400000       12.2618000000
  O        10.6755000000        1.4821400000       11.8166000000
  O        13.5284000000        7.6834400000        0.3110490000
  O         7.1649400000        9.0051100000        9.1388800000
  O         3.9726800000       12.2318000000        3.2979500000
  O        10.3978000000       16.5037000000       15.4682000000
  O        15.6083000000       10.4449000000        1.6150100000
  O         1.1290800000        9.3255000000        2.2168200000
  O        15.0999000000        5.2125300000       13.2505000000
  O         0.2598530000       16.7654000000       15.0547000000
  O         1.4747300000       11.8381000000        5.0516000000
  O         7.0073400000       14.3138000000        7.6423600000
  O        15.2255000000        0.9584200000        0.5099380000
  O         4.1046500000       14.8822000000        2.3593600000
  O        11.6165000000        9.8599400000        0.1583890000
  O        16.1582000000        5.3070900000       16.2176000000
  O         1.6860000000        6.5666600000       11.3767000000
  O        11.4158000000       16.2987000000        4.5565900000
  O        10.2808000000        8.1701300000       10.9047000000
  O         4.9140300000        3.8948900000        7.2591600000
  O         9.0165500000       13.2469000000        5.3114400000
  O        15.0094000000       11.6344000000        6.9882200000
  O        10.5718000000       13.0443000000        8.5250200000
  O         5.0716000000        0.9238220000        2.2634100000
  O         7.8979300000        6.2492000000       11.8607000000
  O        16.3229000000        7.8046700000        0.4732810000
  O        13.9318000000        4.0244700000        0.3120380000
  O         9.7110100000       10.1244000000        2.5586400000
  O         6.3717300000       12.3155000000        2.0076000000
  O        13.8020000000        7.8420100000       13.4954000000
  O        15.1971000000        6.0253700000        2.4638900000
  O        13.1594000000       10.4155000000        2.6683900000
  O         7.3742300000        3.3076900000        9.1940800000
  O         4.5412200000       16.4260000000       16.8613000000
  O        11.3412000000       11.6265000000        5.9937200000
  O         6.3212200000       14.0304000000        4.8236300000
  O         0.0693270000        7.5014400000       13.7429000000
  O         9.7359900000       12.9946000000       14.4182000000
  O        14.1536000000       15.7029000000        3.1517600000
  O         6.7915900000        3.1945400000       11.8058000000
  O        11.6563000000       10.0987000000       13.3541000000
  O         7.5401700000        4.8602000000        6.1505400000
  O         6.6577400000       11.6101000000       10.1869000000
  O         5.3724800000       16.2008000000        6.3619300000
  O         8.5954500000       15.3147000000        0.1756380000
  O         3.9744300000        2.4739600000       13.1495000000
  O         7.0627000000       15.9444000000        2.3420100000
  O         1.8915100000        4.9813900000        4.8149900000
  O         4.3195700000        9.6466900000        6.2343800000
  O         0.0549060000       10.1875000000       12.7453000000
  O         8.7690500000       10.3299000000       13.9893000000
  O         9.1265200000       16.2572000000        5.9996900000
  O         6.4091200000        5.8177300000        0.1540370000
  O         9.7047600000       11.2237000000       11.5315000000