     594
 i =        0, time =        0.000, E =     -4633.9039248646
  H        -0.0009005007       -0.0519595125       -0.0302635186
  H         0.0018322408       -0.0126320937        0.0030501677
  H         0.0090630285        0.0010962670       -0.0134942003
  H         0.0236517275       -0.0295276416       -0.0921853069
  H         0.0114316424       -0.0620904754        0.0018811643
  H         0.0093953030       -0.0030926106       -0.0069592003
  H        -0.0308841624        0.0090728682        0.0007650878
  H         0.0384337758        0.0192957627        0.0097833224
  H         0.0195305206       -0.0265453025       -0.0324336074
  H         0.0141042577       -0.0084773640       -0.0327488312
  H        -0.0120490776        0.0085210316        0.0073464392
  H        -0.0033619756        0.0149035202        0.0088696845
  H         0.0110659109       -0.0024718240        0.0078758190
  H        -0.0011169827        0.0101601703       -0.0200850898
  H         0.0063924149       -0.0192513697       -0.0396076444
  H        -0.0291101226        0.0532472187        0.0123366000
  H        -0.0014487058       -0.0146963318       -0.0201234208
  H         0.0485891030        0.0066148623       -0.0060029163
  H         0.0215946198       -0.0358231055       -0.0099808059
  H        -0.0331539228        0.0260561471       -0.0073238187
  H         0.0094270074       -0.0128534000        0.0026325158
  H         0.0112709332       -0.0242396205       -0.0165741945
  H        -0.0080401383       -0.0051529929        0.0039599462
  H        -0.0054965670        0.0545000206        0.0199256986
  H         0.0469269631        0.0163735329        0.0352819422
  H         0.0190768894        0.0105918410        0.0145314037
  H        -0.0254789149        0.0054070321       -0.0054079597
  H         0.0095193236       -0.0274554479        0.0024096097
  H        -0.0053566991       -0.0071486445       -0.0074488849
  H         0.0029345389        0.0136235321        0.0020865420
  H        -0.0357544501        0.0261268256        0.0464921266
  H        -0.0070832779       -0.0123878617       -0.0191329034
  H         0.0023796599       -0.0047936441        0.0099442723
  H         0.0053507881       -0.0050290209        0.0107376251
  H         0.0028372242       -0.0048288445        0.0148776991
  H         0.1265722552       -0.0500215825        0.0063364515
  H        -0.0002664252        0.0013609253       -0.0186748047
  H        -0.0077098232       -0.0053531949        0.0086083969
  H        -0.0072001472        0.0093601485        0.0470409738
  H        -0.0007640747        0.0009724704       -0.0025184366
  H        -0.0219491372        0.0163955506       -0.0303771222
  H        -0.0094091378        0.0105970936        0.0082604781
  H        -0.0071753102        0.0027339921       -0.0063798974
  H        -0.0113199966       -0.0030447376       -0.0060556736
  H         0.0410888885        0.0170726372       -0.0109324310
  H        -0.0087381595       -0.0001229868       -0.0060142761
  H        -0.0049135098        0.0022923127       -0.0075303271
  H         0.0074420896       -0.0037686224       -0.0037380082
  H         0.0083753643        0.0026281073       -0.0122188479
  H         0.0012756046        0.0126313700       -0.0094494980
  H         0.0000239629        0.0017071231        0.0045535705
  H        -0.0110650555       -0.0118125689       -0.0263125189
  H         0.0071990142       -0.0111367008        0.0078111302
  H         0.0132282014       -0.0023544264       -0.0012421903
  H        -0.0123367134       -0.0110263201       -0.0354321526
  H         0.0177189387        0.0065759511       -0.0019532376
  H        -0.0275970269        0.0168282495        0.0384895009
  H         0.0196179514       -0.0193570600        0.0192692561
  H         0.0233325234       -0.0251570548       -0.0076546568
  H        -0.0067252301       -0.0037606135        0.0063433489
  H        -0.0350613293        0.0185739784       -0.0330495374
  H        -0.0049903622       -0.0156043179        0.0029581318
  H         0.0560663969        0.0228902673       -0.0222442481
  H         0.0133562710       -0.0154694177        0.0040831669
  H         0.0152012813        0.0134732094        0.0126035363
  H         0.0362978737       -0.0292564624        0.0190089088
  H         0.0006846703       -0.0077459370        0.0073768619
  H        -0.0151920316       -0.0003106806        0.0052957167
  H        -0.0071085549        0.0249978848        0.0088686044
  H        -0.0033472540       -0.0038439036       -0.0027336684
  H         0.0332570458       -0.0340240786        0.0325420115
  H         0.0057416271        0.0038433621       -0.0028430867
  H        -0.0015456972        0.0035924317       -0.0053192317
  H         0.0180811817        0.0028457227        0.0127540320
  H         0.0038050122        0.0155160841        0.0134681854
  H        -0.0089312652       -0.0001122117       -0.0037978135
  H        -0.0060896500        0.0161971733        0.0300305814
  H         0.0026422809        0.0026142261       -0.0016658218
  H         0.0073774374       -0.0094238886       -0.0150873469
  H        -0.0146276446       -0.0010053498        0.0196046276
  H        -0.0118239905       -0.0047689442       -0.0350412574
  H        -0.0443970058       -0.0141001107        0.0152871094
  H        -0.0015686064        0.0083494612       -0.0051898944
  H        -0.0051260925       -0.0029100067        0.0081894496
  H         0.0008119757       -0.0029067396        0.0020133238
  H        -0.0104386101        0.0151972075       -0.0326769821
  H         0.0334532963       -0.0205429586       -0.0223874457
  H        -0.0413670596        0.0106673410       -0.0347975137
  H        -0.0050589467        0.0048268955       -0.0036861352
  H        -0.0042169675        0.0025543212       -0.0080574057
  H        -0.0171971085       -0.0119092564        0.0051379941
  H         0.0222946639       -0.0138136700       -0.0154766952
  H        -0.0081289801        0.0097697123        0.0388392470
  H         0.0041217575       -0.0015322611       -0.0096765161
  H        -0.0058644885        0.0214642962        0.0027581294
  H        -0.0007028162       -0.0024869836        0.0006647015
  H        -0.0183209635        0.0108695513       -0.0048427177
  H         0.0183265676        0.0100925373       -0.0084641034
  H        -0.0088853832       -0.0061835421        0.0129696015
  H        -0.0119364401       -0.0216285351        0.0143869849
  H         0.0340666706       -0.0497097722       -0.0032029239
  H         0.0041065403        0.0063004635        0.0018455174
  H        -0.0108866607       -0.0022873643        0.0153971807
  H        -0.0232158837        0.0087737481        0.0133289959
  H        -0.0312396152       -0.0403813109       -0.0018850295
  H        -0.0014987577       -0.0075352703       -0.0059325899
  H         0.0029119205        0.0013952587       -0.0033610272
  H        -0.0181967678       -0.0046300229       -0.0027901680
  H         0.0044668963       -0.0481541178        0.0096193921
  H        -0.0240221529       -0.0149112213        0.0024852920
  H        -0.0164755530        0.0023948577        0.0074617123
  H        -0.0080876428       -0.0083872437        0.0726392186
  H         0.0017467176       -0.0016448175       -0.0074880091
  H         0.0442480982       -0.0015729753       -0.0306902940
  H         0.0079723611       -0.0362593827        0.0022970104
  H        -0.0116513463        0.0146246222        0.0620737823
  H        -0.0482091747       -0.0146526438        0.0482125269
  H        -0.0065649012        0.0080038052        0.0031206592
  H        -0.0272751538       -0.0025669188        0.0205781942
  H        -0.0165983959        0.0115503702       -0.0090380339
  H        -0.0194981193        0.0173424943       -0.0277517258
  H         0.0077701315        0.0086548483       -0.0088596733
  H        -0.0242796770        0.0101547016       -0.0216744014
  H         0.0016840520        0.0047838493       -0.0103435256
  H        -0.0338285954        0.0240587576        0.0087985855
  H         0.0092751815       -0.0157042385        0.0460131449
  H         0.0062637782       -0.0008965468        0.0032043374
  H         0.0230826837       -0.0262711381        0.0018808464
  H        -0.0155142397       -0.0102018995       -0.0004596239
  H         0.0169406430       -0.0194083239       -0.0140796708
  H         0.0126011194        0.0337569748        0.0383246489
  H         0.0058922872        0.0041697824        0.0196347450
  H         0.0475013168       -0.0054852234       -0.0158984791
  H         0.0022560414       -0.0008939738        0.0125756447
  H        -0.0005665720       -0.0067739262        0.0030865417
  H        -0.0014096168        0.0053332772        0.0025754803
  H        -0.0026380529       -0.0129919701       -0.0389631201
  H         0.0010551232        0.0078661371       -0.0001207512
  H         0.0089069488       -0.0122109077       -0.0133232489
  H        -0.0010481979       -0.0147364610        0.0016817459
  H        -0.0073098413       -0.0200792184       -0.0250284487
  H        -0.0002057077       -0.0053603917        0.0078061160
  H         0.0248352916        0.0060137130       -0.0085808422
  H        -0.0047228779        0.0041074165        0.0007349352
  H         0.0103262337       -0.0002968682        0.0324449260
  H        -0.0221243879        0.0008764643        0.0180068060
  H        -0.0046252774       -0.0046549654       -0.0009805315
  H         0.0192817299       -0.0471482268        0.0109254141
  H        -0.0035422947       -0.0160200664        0.0031049971
  H         0.0457544954       -0.0193678149       -0.0004437858
  H         0.0005437243       -0.0068226481       -0.0047941787
  H        -0.0070934162        0.0080563683        0.0178493924
  H        -0.0218413313       -0.0132758977        0.0024788826
  H         0.0004636498        0.0218668159        0.0224234297
  H        -0.0080851122        0.0009706938        0.0103142199
  H         0.0226476042        0.0247868037       -0.0853200610
  H         0.0111327580       -0.0395810383        0.0201951310
  H        -0.0268967960        0.0090495297       -0.0423733528
  H        -0.0031956400       -0.0012780367       -0.0085446517
  H        -0.0441652008        0.0277694303       -0.0225674180
  H        -0.0470924017       -0.0326787337        0.0572388626
  H         0.0374264601       -0.0093988910        0.0011685680
  H         0.0011481328       -0.0096366771       -0.0105555641
  H        -0.0150620744       -0.0184400314       -0.0127348000
  H         0.0104975686       -0.0059773111       -0.0029204676
  H         0.0318868229        0.0026300308        0.0274301464
  H         0.0048201658       -0.0038960791       -0.0082973037
  H        -0.0068608558        0.0049198666        0.0056808317
  H         0.0173728657       -0.0023233196        0.0067770475
  H         0.0013421734       -0.0078539903        0.0046428287
  H         0.0170524566        0.0082260107       -0.0062308982
  H        -0.0007602686       -0.0050479566        0.0101592247
  H        -0.0070624626        0.0089332198       -0.0010153485
  H        -0.0064423332        0.0106727307        0.0142647842
  H         0.0075621553        0.0021308761       -0.0162662010
  H        -0.0053050431       -0.0012563073        0.0037443760
  H        -0.0106028526        0.0113439863        0.0024958283
  H        -0.0279016535        0.0238302686        0.0376677793
  H         0.0077940942        0.0000635055       -0.0135746295
  H        -0.0098899117       -0.0070663424        0.0037400903
  H         0.0211072740       -0.0010162437       -0.0065840457
  H        -0.0073312521       -0.0109483294        0.0030749702
  H        -0.0036296249        0.0208840130       -0.0183602359
  H        -0.0300107232       -0.0182094068        0.0127889094
  H         0.0026888769        0.0177216030        0.0306251554
  H        -0.0044657343       -0.0073784613       -0.0231736267
  H         0.0013407076        0.0010840147       -0.0004843418
  H         0.0144361088        0.0570695462       -0.0154843189
  H         0.0119393042        0.0117969457        0.0095095126
  H        -0.0052316751        0.0065023192       -0.0008571091
  H         0.0088061597       -0.0113424158       -0.0175737350
  H        -0.0106893454       -0.0149232690       -0.0096263164
  H         0.0320243842        0.0078094209       -0.0159097362
  H        -0.0193817056        0.0117186190        0.0179688007
  H        -0.0479662666       -0.0190962281        0.0006707210
  H        -0.0075038880        0.0179036075        0.0088371327
  H         0.0212938697        0.0019264882        0.0136471797
  H         0.0364665643        0.0366292567       -0.0248033812
  H        -0.0214913093        0.0162295039       -0.0060321988
  H        -0.0117670946       -0.0075167055       -0.0030586592
  H         0.0008567936       -0.0298780783        0.0632370906
  H        -0.0045945377        0.0234845257       -0.0123428332
  H         0.0024075394       -0.0086573151        0.0022442749
  H         0.0049310873        0.0208806963       -0.0035913685
  H        -0.0206171279       -0.0021589413        0.0006877510
  H        -0.0022809230       -0.0004494868        0.0328363023
  H         0.0099975036       -0.0128950396        0.0232171116
  H        -0.0133607658        0.0093812871       -0.0303410243
  H        -0.0256675847       -0.0413599173       -0.0476197756
  H         0.0123615699        0.0091556698        0.0017312768
  H         0.0155393475       -0.0277957308       -0.0015528112
  H         0.0047083703       -0.0009917236        0.0026570553
  H         0.0008018819       -0.0105098859       -0.0136898668
  H         0.0303233959       -0.0114472531        0.0229226892
  H        -0.0274621333       -0.0136786167        0.0179001981
  H        -0.0162216857        0.0151286800       -0.0281385305
  H        -0.0346880311        0.0351766928       -0.0411446402
  H        -0.0121170380       -0.0064210147        0.0011240762
  H        -0.0336852447       -0.0345649164        0.0052945404
  H        -0.0105150298        0.0052585784       -0.0223358941
  H         0.0264389731        0.0003117258       -0.0148116876
  H        -0.0023410747       -0.0032178089       -0.0025427161
  H         0.0166111185       -0.0119247263        0.0039722766
  H        -0.0402844852       -0.0099013718       -0.0155661249
  H         0.0078858230        0.0144520835       -0.0097829294
  H         0.0047443844        0.0025697725       -0.0032470896
  H         0.0041489987       -0.0148502147        0.0088433797
  H        -0.0212435774        0.0143522375       -0.0129694341
  H         0.0154297618       -0.0138534015        0.0110990301
  H         0.0148634303       -0.0034529990        0.0010615992
  H        -0.0024484084        0.0186844183        0.0105902785
  H         0.0026545188       -0.0032280885        0.0378363896
  H         0.0083754919        0.0111157696        0.0026635439
  H         0.0158885238        0.0048945798        0.0126028770
  H         0.0234124532       -0.0025944754        0.0011714516
  H         0.0076512843        0.0032700557       -0.0045029815
  H        -0.0083330197        0.0017254111       -0.0083047823
  H        -0.0157402168        0.0117159811       -0.0032359177
  H         0.0425964445        0.0203168607        0.0197471724
  H        -0.0083976324       -0.0053292165        0.0090611191
  H        -0.0202242475       -0.0246476946        0.0054590719
  H        -0.0370350774        0.0084313204       -0.0375965253
  H         0.0066331434       -0.0288805228        0.0111338827
  H         0.0041522716       -0.0044015741        0.0036315740
  H         0.0039037799       -0.0069604103        0.0078199951
  H        -0.0057391781        0.0030359822        0.0014035908
  H        -0.0000341641        0.0055196930       -0.0092688779
  H         0.0062891719        0.0221236276        0.0022598513
  H         0.0136225069       -0.0061164631        0.0218865309
  H        -0.0044220912        0.0183772382        0.0186609932
  H         0.0164797646        0.0055381847        0.0165590332
  H         0.0424291114        0.0045656029       -0.0130831425
  H        -0.0094943447       -0.0129906958       -0.0212157691
  H         0.0019850551       -0.0246965290       -0.0021387579
  H        -0.0227975229        0.0004485921       -0.0156821511
  H        -0.0048117723        0.0315430303       -0.0197288299
  H         0.0226372382        0.0115421616        0.0133339135
  H        -0.0019521850       -0.0060770994        0.0230874481
  H         0.0164520604        0.0123706137       -0.0101257142
  H        -0.0056812323        0.0021271325        0.0035541427
  H        -0.0134831014       -0.0244324953       -0.0189415570
  H         0.0049247730        0.0083910533        0.0188042202
  H        -0.0117748401        0.0002544728        0.0279771746
  H        -0.0650005019        0.0150428131        0.0173789039
  H         0.0123070559        0.0177157536        0.0115118653
  H        -0.0011643192       -0.0119585068        0.0095332349
  H        -0.0074217679        0.0109919134       -0.0115369276
  H         0.0054908611       -0.0098823156       -0.0029430687
  H         0.0003958657       -0.0062081939        0.0469220687
  H        -0.0057762165        0.0010664246       -0.0035876592
  H        -0.0001089154       -0.0008927893        0.0017764139
  H        -0.0073446184       -0.0088793288        0.0067200287
  H         0.0020939068        0.0012885560        0.0146752746
  H        -0.0138461635        0.0052926570       -0.0284247706
  H        -0.0149363780       -0.0201342924       -0.0366982390
  H        -0.0122043874       -0.0200097707       -0.0031434106
  H         0.0056866205       -0.0282638811        0.0122059676
  H        -0.0048849569       -0.0121871664       -0.0047414621
  H        -0.0039503303       -0.0136920676       -0.0063299706
  H         0.0289558553        0.0038351043       -0.0394374733
  H         0.0211914045        0.0175899928        0.0066544153
  H         0.0123556524       -0.0070253450       -0.0079829592
  H        -0.0314860918       -0.0157464520       -0.0296284242
  H        -0.0328460813       -0.0421914764       -0.0200335775
  H        -0.0089147336       -0.0184273653       -0.0086391104
  H         0.0055633767       -0.0282020890        0.0133299010
  H        -0.0041837018       -0.0190601133       -0.0041716767
  H        -0.0144245234       -0.0425385870        0.0110596341
  H         0.0039530944        0.0301870649       -0.0098836922
  H        -0.0094318986        0.0002170327        0.0098813049
  H         0.0184882414        0.0111437126        0.0224023269
  H         0.0318099035        0.0465344224       -0.0364059333
  H         0.0066573372        0.0088063268       -0.0001678176
  H        -0.0333851668       -0.0201749195       -0.0131014785
  H         0.0213611856        0.0354453678        0.0068622354
  H         0.0116651244       -0.0319228172        0.0070848324
  H         0.0032829990       -0.0042938311        0.0024346678
  H        -0.0379927329       -0.0142713316       -0.0322466245
  H        -0.0302940128        0.0230124869        0.0115010197
  H         0.0165960574        0.0355035949        0.0402793660
  H        -0.0141599786       -0.0136324161       -0.0161480454
  H        -0.0130131427        0.0058064249       -0.0105060811
  H        -0.0023707473       -0.0016676809       -0.0015432128
  H         0.0096214225       -0.0172450277        0.0275609113
  H         0.0012769864       -0.0004624615        0.0085754323
  H        -0.0110893740       -0.0189500693       -0.0039611969
  H        -0.0003962563       -0.0231321455        0.0131196984
  H         0.0013986265        0.0042242332       -0.0051675135
  H         0.0374976646       -0.0121968775        0.0139940866
  H         0.0029192019       -0.0179613116       -0.0045212816
  H        -0.0021275095       -0.0045716193        0.0009373135
  H        -0.0177857171        0.0248927515       -0.0404867422
  H        -0.0070812537        0.0003100869       -0.0028201820
  H        -0.0050580510        0.0136880785        0.0107155608
  H        -0.0019263959        0.0252838798        0.0147218409
  H        -0.0016731079        0.0078675795        0.0011551259
  H         0.0171164764       -0.0128792266        0.0014674336
  H        -0.0044529220       -0.0118146271       -0.0112965436
  H         0.0103446760        0.0103833891        0.0035642518
  H         0.0164102602       -0.0075546633       -0.0317312504
  H        -0.0151218602        0.0264454257        0.0033861808
  H         0.0011835911        0.0148411300       -0.0032406221
  H        -0.0140019668       -0.0036351109        0.0112803758
  H         0.0161728263       -0.0353910813       -0.0212087042
  H        -0.0014139203        0.0079876305        0.0084119182
  H        -0.0052840803       -0.0163711754       -0.0109594560
  H        -0.0130182507       -0.0124436787       -0.0193069227
  H        -0.0271139750        0.0205303334        0.0094755501
  H        -0.0043416416        0.0057086699        0.0123099816
  H         0.0046783794        0.0007024511        0.0005737461
  H         0.0054212906        0.0024932387        0.0034810757
  H        -0.0112896581        0.0217793603       -0.0030372345
  H         0.0319045027       -0.0235892982       -0.0359441544
  H        -0.0413602800        0.0182603576       -0.0099390443
  H        -0.0188928001       -0.0577580608        0.0175758449
  H        -0.0068715076        0.0236684916       -0.0325685698
  H        -0.0216436470       -0.0143924968        0.0237841692
  H         0.0031423530       -0.0256594790       -0.0287269206
  H         0.0007518535       -0.0263065545       -0.0043067995
  H         0.0251051431       -0.0117786578       -0.0134299767
  H        -0.0103501992       -0.0192079928       -0.0335024543
  H         0.0171789507       -0.0307645648        0.0325810866
  H         0.0509418172        0.0077767868       -0.0277765134
  H         0.0002407570        0.0022611552        0.0202404536
  H         0.0081728204       -0.0049324097       -0.0558092897
  H         0.0072922919       -0.0179619146       -0.0080469377
  H         0.0018752855        0.0125330673        0.0352120544
  H        -0.0298093708       -0.0133517224        0.0272495932
  H         0.0061186527       -0.0014687838        0.0140440441
  H        -0.0071356672        0.0083979618        0.0144735207
  H        -0.0303041009        0.0248876235        0.0072147398
  H         0.0020496283        0.0400432921        0.0131898368
  H         0.0287173261       -0.0140886391        0.0218951088
  H         0.0351542676       -0.0317469588       -0.0533006100
  H         0.0115151199        0.0309429316        0.0089101550
  H         0.0002642890       -0.0062664666        0.0145947127
  H        -0.0207863224        0.0257384129        0.0356487292
  H         0.0025715688        0.0207800163       -0.0138966006
  H         0.0024610507        0.0128278886        0.0047464997
  H         0.0054808580       -0.0022868876       -0.0114635114
  H        -0.0078618908       -0.0153606237       -0.0568107976
  H        -0.0046126179        0.0574795266       -0.0452391026
  H        -0.0023667715        0.0221907618       -0.0113725572
  H         0.0058319484        0.0002179404       -0.0057454183
  H         0.0096449169       -0.0027286041        0.0229945148
  H        -0.0359710018       -0.0438799672        0.0037913381
  H        -0.0073081731       -0.0078630914        0.0040537747
  H        -0.0045330290        0.0046033788       -0.0064099981
  H         0.0450724365       -0.0535371622       -0.0004924629
  H         0.0234596899        0.0088875761        0.0027381647
  H        -0.0143511177        0.0237151681        0.0153559835
  H        -0.0072907754       -0.0269809965       -0.0236169408
  O        -0.0076155435        0.0768646530        0.0097560948
  O        -0.0203068679        0.0036068378       -0.0128662555
  O        -0.0188179606       -0.0002120629       -0.0060763993
  O        -0.0087894810        0.0357935085        0.0959950990
  O        -0.0045848003        0.0498089282       -0.0191646877
  O         0.0016784063        0.0084691653       -0.0572494555
  O         0.0265453685       -0.0441764158       -0.0049370400
  O        -0.0511873370        0.0039838862        0.0124467224
  O        -0.0072403044        0.0144320283        0.0545062683
  O        -0.0417025683        0.0269975300       -0.0228655330
  O         0.0088753993        0.0069477301        0.0061831068
  O        -0.0200953903        0.0050894406       -0.0294546632
  O        -0.0094624021        0.0160396558       -0.0442635958
  O         0.0402836786        0.0168058215        0.0955299926
  O        -0.0454952182        0.0062910132        0.0554875491
  O         0.1013063445       -0.0513094910        0.0332923029
  O         0.0028601133        0.0274918289        0.0259696080
  O        -0.0360837495       -0.0035141802        0.0170510318
  O        -0.0108483792        0.0235755642        0.0051934762
  O         0.0788136416       -0.0106885088       -0.0524650056
  O        -0.0298125308        0.0195768673       -0.0151879122
  O         0.0071007425       -0.0069721325        0.0116693518
  O        -0.0725855624        0.0225477157       -0.0511296490
  O         0.0102773114       -0.0412233989       -0.0558538246
  O        -0.0530905920        0.0017263266       -0.0367191818
  O        -0.0255959616        0.0156850568       -0.0190548215
  O         0.0512480234        0.0377817551        0.0158739516
  O        -0.0109094270        0.0222973315        0.0018889106
  O         0.0105682578        0.0201675743       -0.0314567093
  O        -0.0195740903       -0.0294388361       -0.0175690079
  O        -0.0102000409        0.0279543511       -0.0097040304
  O        -0.0021691867       -0.0423213086        0.0684872120
  O         0.0225826219        0.0530654088        0.0500154697
  O        -0.0619274677       -0.0041119472       -0.0173198490
  O        -0.0003897734        0.0217019224       -0.0170962666
  O        -0.1412231639        0.0604591553        0.0145592802
  O         0.0168653786       -0.0072679798        0.0051346551
  O         0.0180881400       -0.0258621564       -0.0406771465
  O         0.0135365283       -0.0128118004        0.0344981578
  O         0.0080765381       -0.0019472019        0.0093278115
  O        -0.0401036063        0.0001485649        0.0200984883
  O         0.0072026913        0.0050477683        0.0094479639
  O         0.0665951898       -0.0306802181        0.0013716924
  O         0.0070461786        0.0086533551        0.0209827305
  O        -0.0065329995        0.0076286256        0.0053969300
  O         0.0152520836        0.0068935548        0.0326279150
  O         0.0165653575       -0.0013882457       -0.0473342694
  O        -0.0008855697        0.0443677278        0.0440268992
  O         0.0470779446        0.0044072703        0.0419438634
  O        -0.0445203602       -0.0162602847        0.0231662398
  O        -0.0450585562       -0.0032291492       -0.0313288785
  O         0.0218231476        0.0118731082       -0.0252644112
  O         0.0080213925       -0.0200678139       -0.0133876319
  O        -0.0276771541        0.0261233900       -0.0257847931
  O        -0.0222625295       -0.0032483771       -0.0080186773
  O         0.0065314211       -0.0114878416       -0.0147404972
  O        -0.0083882353        0.0028941815       -0.0332131852
  O        -0.0003852399        0.0071250831       -0.0469358671
  O         0.0592263745        0.0418420084        0.0425626292
  O        -0.0014682259       -0.0197304136        0.0021239274
  O         0.0045037768       -0.0067857452        0.0184121053
  O         0.0048727672        0.0128596929        0.0595024156
  O         0.0176109900        0.0028499377       -0.0015322964
  O        -0.0093935574        0.0254444616        0.0139331453
  O        -0.0013800407       -0.0117306325       -0.0236964680
  O         0.0046421260       -0.0422256743        0.0010930011
  O         0.0003346856       -0.0348561523       -0.0123533045
  O         0.0213742616        0.0257806691       -0.0135435960
  O        -0.0299697009        0.0388672036       -0.0042768851
  O         0.0180623656       -0.0028489406       -0.0339208777
  O         0.0418113732        0.0438109124        0.0470604557
  O         0.0151174420        0.0150279775        0.0003714359
  O         0.0088817857        0.0611693861       -0.0132065942
  O         0.0107411323       -0.0197197126        0.0606637756
  O        -0.0356689512       -0.0021958527        0.0444919192
  O         0.0099758900        0.0096402943       -0.0604091507
  O         0.0282624312       -0.0019671884       -0.0047460655
  O         0.0428024088        0.0079390892       -0.0235982231
  O         0.0189916848       -0.0088019585        0.0172086430
  O         0.0422101716        0.0348616579        0.0390732583
  O         0.0073310695       -0.0390147492       -0.0551644107
  O        -0.0300189612        0.0250120759        0.0055040081
  O        -0.0043803029       -0.0172291479        0.0879234239
  O        -0.0250750320       -0.0289991869       -0.0303602581
  O        -0.0584422354       -0.0063058334        0.0090299253
  O        -0.0082843861       -0.0039534329       -0.0015804693
  O         0.0071847927        0.0020898012        0.0346298632
  O         0.0050426769        0.0182006099        0.0031815061